LAMMPS data file for water

3 atoms
0 bonds
0 angles
0 dihedrals
0 impropers

2 atom types
0 bond types
0 angle types
0 dihedral types
0 improper types

-2.0 7.0 xlo xhi
-2.0 7.0 ylo yhi
-2.0 7.0 zlo zhi

Masses

1 15.9994
2 1.008

Atoms

1 0 1 -0.834 2.26426 -0.155838 -0.847135
2 0 2 0.417 2.38402 -0.292852 0.0926059
3 0 2 0.417 1.96958 0.751923 -0.921452

